<?xml version="1.0"?>
<VTKFile type="UnstructuredGrid"  version="0.1"  >
<UnstructuredGrid>
<Piece  NumberOfPoints="7225" NumberOfCells="36864">
<Points>
<DataArray  type="Float64"  NumberOfComponents="3"  format="ascii">0 0 0  0.04166666666666666 0 0  0.08333333333333333 0 0  0.125 0 0  0.1666666666666667 0 0  0.2083333333333333 0 0  0.25 0 0  0.2916666666666667 0 0  0.3333333333333333 0 0  0.375 0 0  0.4166666666666667 0 0  0.4583333333333333 0 0  0.5 0 0  0.5416666666666666 0 0  0.5833333333333334 0 0  0.625 0 0  0.6666666666666666 0 0  0.7083333333333334 0 0  0.75 0 0  0.7916666666666666 0 0  0.8333333333333334 0 0  0.875 0 0  0.9166666666666666 0 0  0.9583333333333334 0 0  1 0 0  0 0.0625 0  0.04166666666666666 0.0625 0  0.08333333333333333 0.0625 0  0.125 0.0625 0  0.1666666666666667 0.0625 0  0.2083333333333333 0.0625 0  0.25 0.0625 0  0.2916666666666667 0.0625 0  0.3333333333333333 0.0625 0  0.375 0.0625 0  0.4166666666666667 0.0625 0  0.4583333333333333 0.0625 0  0.5 0.0625 0  0.5416666666666666 0.0625 0  0.5833333333333334 0.0625 0  0.625 0.0625 0  0.6666666666666666 0.0625 0  0.7083333333333334 0.0625 0  0.75 0.0625 0  0.7916666666666666 0.0625 0  0.8333333333333334 0.0625 0  0.875 0.0625 0  0.9166666666666666 0.0625 0  0.9583333333333334 0.0625 0  1 0.0625 0  0 0.125 0  0.04166666666666666 0.125 0  0.08333333333333333 0.125 0  0.125 0.125 0  0.1666666666666667 0.125 0  0.2083333333333333 0.125 0  0.25 0.125 0  0.2916666666666667 0.125 0  0.3333333333333333 0.125 0  0.375 0.125 0  0.4166666666666667 0.125 0  0.4583333333333333 0.125 0  0.5 0.125 0  0.5416666666666666 0.125 0  0.5833333333333334 0.125 0  0.625 0.125 0  0.6666666666666666 0.125 0  0.7083333333333334 0.125 0  0.75 0.125 0  0.7916666666666666 0.125 0  0.8333333333333334 0.125 0  0.875 0.125 0  0.9166666666666666 0.125 0  0.9583333333333334 0.125 0  1 0.125 0  0 0.1875 0  0.04166666666666666 0.1875 0  0.08333333333333333 0.1875 0  0.125 0.1875 0  0.1666666666666667 0.1875 0  0.2083333333333333 0.1875 0  0.25 0.1875 0  0.2916666666666667 0.1875 0  0.3333333333333333 0.1875 0  0.375 0.1875 0  0.4166666666666667 0.1875 0  0.4583333333333333 0.1875 0  0.5 0.1875 0  0.5416666666666666 0.1875 0  0.5833333333333334 0.1875 0  0.625 0.1875 0  0.6666666666666666 0.1875 0  0.7083333333333334 0.1875 0  0.75 0.1875 0  0.7916666666666666 0.1875 0  0.8333333333333334 0.1875 0  0.875 0.1875 0  0.9166666666666666 0.1875 0  0.9583333333333334 0.1875 0  1 0.1875 0  0 0.25 0  0.04166666666666666 0.25 0  0.08333333333333333 0.25 0  0.125 0.25 0  0.1666666666666667 0.25 0  0.2083333333333333 0.25 0  0.25 0.25 0  0.2916666666666667 0.25 0  0.3333333333333333 0.25 0  0.375 0.25 0  0.4166666666666667 0.25 0  0.4583333333333333 0.25 0  0.5 0.25 0  0.5416666666666666 0.25 0  0.5833333333333334 0.25 0  0.625 0.25 0  0.6666666666666666 0.25 0  0.7083333333333334 0.25 0  0.75 0.25 0  0.7916666666666666 0.25 0  0.8333333333333334 0.25 0  0.875 0.25 0  0.9166666666666666 0.25 0  0.9583333333333334 0.25 0  1 0.25 0  0 0.3125 0  0.04166666666666666 0.3125 0  0.08333333333333333 0.3125 0  0.125 0.3125 0  0.1666666666666667 0.3125 0  0.2083333333333333 0.3125 0  0.25 0.3125 0  0.2916666666666667 0.3125 0  0.3333333333333333 0.3125 0  0.375 0.3125 0  0.4166666666666667 0.3125 0  0.4583333333333333 0.3125 0  0.5 0.3125 0  0.5416666666666666 0.3125 0  0.5833333333333334 0.3125 0  0.625 0.3125 0  0.6666666666666666 0.3125 0  0.7083333333333334 0.3125 0  0.75 0.3125 0  0.7916666666666666 0.3125 0  0.8333333333333334 0.3125 0  0.875 0.3125 0  0.9166666666666666 0.3125 0  0.9583333333333334 0.3125 0  1 0.3125 0  0 0.375 0  0.04166666666666666 0.375 0  0.08333333333333333 0.375 0  0.125 0.375 0  0.1666666666666667 0.375 0  0.2083333333333333 0.375 0  0.25 0.375 0  0.2916666666666667 0.375 0  0.3333333333333333 0.375 0  0.375 0.375 0  0.4166666666666667 0.375 0  0.4583333333333333 0.375 0  0.5 0.375 0  0.5416666666666666 0.375 0  0.5833333333333334 0.375 0  0.625 0.375 0  0.6666666666666666 0.375 0  0.7083333333333334 0.375 0  0.75 0.375 0  0.7916666666666666 0.375 0  0.8333333333333334 0.375 0  0.875 0.375 0  0.9166666666666666 0.375 0  0.9583333333333334 0.375 0  1 0.375 0  0 0.4375 0  0.04166666666666666 0.4375 0  0.08333333333333333 0.4375 0  0.125 0.4375 0  0.1666666666666667 0.4375 0  0.2083333333333333 0.4375 0  0.25 0.4375 0  0.2916666666666667 0.4375 0  0.3333333333333333 0.4375 0  0.375 0.4375 0  0.4166666666666667 0.4375 0  0.4583333333333333 0.4375 0  0.5 0.4375 0  0.5416666666666666 0.4375 0  0.5833333333333334 0.4375 0  0.625 0.4375 0  0.6666666666666666 0.4375 0  0.7083333333333334 0.4375 0  0.75 0.4375 0  0.7916666666666666 0.4375 0  0.8333333333333334 0.4375 0  0.875 0.4375 0  0.9166666666666666 0.4375 0  0.9583333333333334 0.4375 0  1 0.4375 0  0 0.5 0  0.04166666666666666 0.5 0  0.08333333333333333 0.5 0  0.125 0.5 0  0.1666666666666667 0.5 0  0.2083333333333333 0.5 0  0.25 0.5 0  0.2916666666666667 0.5 0  0.3333333333333333 0.5 0  0.375 0.5 0  0.4166666666666667 0.5 0  0.4583333333333333 0.5 0  0.5 0.5 0  0.5416666666666666 0.5 0  0.5833333333333334 0.5 0  0.625 0.5 0  0.6666666666666666 0.5 0  0.7083333333333334 0.5 0  0.75 0.5 0  0.7916666666666666 0.5 0  0.8333333333333334 0.5 0  0.875 0.5 0  0.9166666666666666 0.5 0  0.9583333333333334 0.5 0  1 0.5 0  0 0.5625 0  0.04166666666666666 0.5625 0  0.08333333333333333 0.5625 0  0.125 0.5625 0  0.1666666666666667 0.5625 0  0.2083333333333333 0.5625 0  0.25 0.5625 0  0.2916666666666667 0.5625 0  0.3333333333333333 0.5625 0  0.375 0.5625 0  0.4166666666666667 0.5625 0  0.4583333333333333 0.5625 0  0.5 0.5625 0  0.5416666666666666 0.5625 0  0.5833333333333334 0.5625 0  0.625 0.5625 0  0.6666666666666666 0.5625 0  0.7083333333333334 0.5625 0  0.75 0.5625 0  0.7916666666666666 0.5625 0  0.8333333333333334 0.5625 0  0.875 0.5625 0  0.9166666666666666 0.5625 0  0.9583333333333334 0.5625 0  1 0.5625 0  0 0.625 0  0.04166666666666666 0.625 0  0.08333333333333333 0.625 0  0.125 0.625 0  0.1666666666666667 0.625 0  0.2083333333333333 0.625 0  0.25 0.625 0  0.2916666666666667 0.625 0  0.3333333333333333 0.625 0  0.375 0.625 0  0.4166666666666667 0.625 0  0.4583333333333333 0.625 0  0.5 0.625 0  0.5416666666666666 0.625 0  0.5833333333333334 0.625 0  0.625 0.625 0  0.6666666666666666 0.625 0  0.7083333333333334 0.625 0  0.75 0.625 0  0.7916666666666666 0.625 0  0.8333333333333334 0.625 0  0.875 0.625 0  0.9166666666666666 0.625 0  0.9583333333333334 0.625 0  1 0.625 0  0 0.6875 0  0.04166666666666666 0.6875 0  0.08333333333333333 0.6875 0  0.125 0.6875 0  0.1666666666666667 0.6875 0  0.2083333333333333 0.6875 0  0.25 0.6875 0  0.2916666666666667 0.6875 0  0.3333333333333333 0.6875 0  0.375 0.6875 0  0.4166666666666667 0.6875 0  0.4583333333333333 0.6875 0  0.5 0.6875 0  0.5416666666666666 0.6875 0  0.5833333333333334 0.6875 0  0.625 0.6875 0  0.6666666666666666 0.6875 0  0.7083333333333334 0.6875 0  0.75 0.6875 0  0.7916666666666666 0.6875 0  0.8333333333333334 0.6875 0  0.875 0.6875 0  0.9166666666666666 0.6875 0  0.9583333333333334 0.6875 0  1 0.6875 0  0 0.75 0  0.04166666666666666 0.75 0  0.08333333333333333 0.75 0  0.125 0.75 0  0.1666666666666667 0.75 0  0.2083333333333333 0.75 0  0.25 0.75 0  0.2916666666666667 0.75 0  0.3333333333333333 0.75 0  0.375 0.75 0  0.4166666666666667 0.75 0  0.4583333333333333 0.75 0  0.5 0.75 0  0.5416666666666666 0.75 0  0.5833333333333334 0.75 0  0.625 0.75 0  0.6666666666666666 0.75 0  0.7083333333333334 0.75 0  0.75 0.75 0  0.7916666666666666 0.75 0  0.8333333333333334 0.75 0  0.875 0.75 0  0.9166666666666666 0.75 0  0.9583333333333334 0.75 0  1 0.75 0  0 0.8125 0  0.04166666666666666 0.8125 0  0.08333333333333333 0.8125 0  0.125 0.8125 0  0.1666666666666667 0.8125 0  0.2083333333333333 0.8125 0  0.25 0.8125 0  0.2916666666666667 0.8125 0  0.3333333333333333 0.8125 0  0.375 0.8125 0  0.4166666666666667 0.8125 0  0.4583333333333333 0.8125 0  0.5 0.8125 0  0.5416666666666666 0.8125 0  0.5833333333333334 0.8125 0  0.625 0.8125 0  0.6666666666666666 0.8125 0  0.7083333333333334 0.8125 0  0.75 0.8125 0  0.7916666666666666 0.8125 0  0.8333333333333334 0.8125 0  0.875 0.8125 0  0.9166666666666666 0.8125 0  0.9583333333333334 0.8125 0  1 0.8125 0  0 0.875 0  0.04166666666666666 0.875 0  0.08333333333333333 0.875 0  0.125 0.875 0  0.1666666666666667 0.875 0  0.2083333333333333 0.875 0  0.25 0.875 0  0.2916666666666667 0.875 0  0.3333333333333333 0.875 0  0.375 0.875 0  0.4166666666666667 0.875 0  0.4583333333333333 0.875 0  0.5 0.875 0  0.5416666666666666 0.875 0  0.5833333333333334 0.875 0  0.625 0.875 0  0.6666666666666666 0.875 0  0.7083333333333334 0.875 0  0.75 0.875 0  0.7916666666666666 0.875 0  0.8333333333333334 0.875 0  0.875 0.875 0  0.9166666666666666 0.875 0  0.9583333333333334 0.875 0  1 0.875 0  0 0.9375 0  0.04166666666666666 0.9375 0  0.08333333333333333 0.9375 0  0.125 0.9375 0  0.1666666666666667 0.9375 0  0.2083333333333333 0.9375 0  0.25 0.9375 0  0.2916666666666667 0.9375 0  0.3333333333333333 0.9375 0  0.375 0.9375 0  0.4166666666666667 0.9375 0  0.4583333333333333 0.9375 0  0.5 0.9375 0  0.5416666666666666 0.9375 0  0.5833333333333334 0.9375 0  0.625 0.9375 0  0.6666666666666666 0.9375 0  0.7083333333333334 0.9375 0  0.75 0.9375 0  0.7916666666666666 0.9375 0  0.8333333333333334 0.9375 0  0.875 0.9375 0  0.9166666666666666 0.9375 0  0.9583333333333334 0.9375 0  1 0.9375 0  0 1 0  0.04166666666666666 1 0  0.08333333333333333 1 0  0.125 1 0  0.1666666666666667 1 0  0.2083333333333333 1 0  0.25 1 0  0.2916666666666667 1 0  0.3333333333333333 1 0  0.375 1 0  0.4166666666666667 1 0  0.4583333333333333 1 0  0.5 1 0  0.5416666666666666 1 0  0.5833333333333334 1 0  0.625 1 0  0.6666666666666666 1 0  0.7083333333333334 1 0  0.75 1 0  0.7916666666666666 1 0  0.8333333333333334 1 0  0.875 1 0  0.9166666666666666 1 0  0.9583333333333334 1 0  1 1 0  0 0 0.0625  0.04166666666666666 0 0.0625  0.08333333333333333 0 0.0625  0.125 0 0.0625  0.1666666666666667 0 0.0625  0.2083333333333333 0 
[...]
<PointData  Vectors="f_15"> 
<DataArray  type="Float64"  Name="f_15"  NumberOfComponents="3" format="ascii">0.0000000000000000e+00 0.0000000000000000e+00 0.0000000000000000e+00  4.8825006921619805e-02 7.2059310676351254e-02 7.5504762598586447e-02  1.0137278163548440e-01 1.2741455482103403e-01 1.3436453685033067e-01  1.5423370446271034e-01 1.7037401076860609e-01 1.8065163053619365e-01  2.0630110079748634e-01 2.0426383323955530e-01 2.1759159921341006e-01  2.5731448508460059e-01 2.3130294380273425e-01 2.4736113295940285e-01  3.0726474625710792e-01 2.5293612858785558e-01 2.7138561076175127e-01  3.5619849598851328e-01 2.7012238412925133e-01 2.9061373646263228e-01  4.0416284685716403e-01 2.8351568729264470e-01 3.0569319522643812e-01  4.5119286716864154e-01 2.9356924403887830e-01 3.1707289633174873e-01  4.9731031045157786e-01 3.0059480085241180e-01 3.2506141208403927e-01  5.4252448011933507e-01 3.0479651480076131e-01 3.2986042077251748e-01  5.8683281650163122e-01 3.0628997473077019e-01 3.3158349951297938e-01  6.3022062896662756e-01 3.0511181131616805e-01 3.3026561000847149e-01  6.7265977935951926e-01 3.0122242361531548e-01 3.2586576563129432e-01  7.1410606904209772e-01 2.9450250275594636e-01 3.1826354432903586e-01  7.5449482734020468e-01 2.8474245983710716e-01 3.0724855142261465e-01  7.9373367591651378e-01 2.7162188260921805e-01 2.9249996778629039e-01  8.3169026895534481e-01 2.5467284491103848e-01 2.7355004941378119e-01  8.6816979656928439e-01 2.3321477594283904e-01 2.4971942905217909e-01  9.0286846744177296e-01 2.0623765832444985e-01 2.2000150707134603e-01  9.3526327807235610e-01 1.7219620383470044e-01 1.8286052249894003e-01  9.6432041219283049e-01 1.2869408700727392e-01 1.3592964704090155e-01  9.8770505580233903e-01 7.2292944453209856e-02 7.5868938936157315e-02  1.0000000000000000e+00 0.0000000000000000e+00 0.0000000000000000e+00  0.0000000000000000e+00 0.0000000000000000e+00 0.0000000000000000e+00  4.7692965314052295e-02 4.4131459199673428e-02 7.9445203542566886e-02  9.8651103155802555e-02 8.5807169034339006e-02 1.3793889802228898e-01  1.5011918067308008e-01 1.2177150776573460e-01 1.8328382329708331e-01  2.0118807169653413e-01 1.5185082567516517e-01 2.1949263022941198e-01  2.5153197442340014e-01 1.7665700947415416e-01 2.4878264204650333e-01  3.0103686216880365e-01 1.9688902442144984e-01 2.7250148755707887e-01  3.4966906615434634e-01 2.1314849160414065e-01 2.9153228244915697e-01  3.9742399665646044e-01 2.2591007013021941e-01 3.0648184253293409e-01  4.4430514920925690e-01 2.3553244870843809e-01 3.1777554169990929e-01  4.9031516367195205e-01 2.4227560093622422e-01 3.2570867796121000e-01  5.3545169863616693e-01 2.4631516201902329e-01 3.3047556387031357e-01  5.7970509235403156e-01 2.4775225398547943e-01 3.3218597100985325e-01  6.2305644568192242e-01 2.4661896311960546e-01 3.3087348026203300e-01  6.6547539577013515e-01 2.4287986353585997e-01 3.2649777890496912e-01  7.0691701795818451e-01 2.3642969584512830e-01 3.1894142722245722e-01  7.4731718304120875e-01 2.2708691143314910e-01 3.0800033318193576e-01  7.8658529048965742e-01 2.1458244564502355e-01 2.9336554983657304e-01  8.2459237129701046e-01 1.9854313792354986e-01 2.7459123462704749e-01  8.6115047979953430e-01 1.7847089922036852e-01 2.5103800215640987e-01  8.9597440108136228e-01 1.5372615942513987e-01 2.2176851607463274e-01  9.2860418189868577e-01 1.2355060395465968e-01 1.8534385680230739e-01  9.5823108236820054e-01 8.7251393354840667e-02 1.3940876765460025e-01  9.8325201137180152e-01 4.4942402306554698e-02 7.9881524653237237e-02  1.0000000000000000e+00 0.0000000000000000e+00 0.0000000000000000e+00  0.0000000000000000e+00 0.0000000000000000e+00 0.0000000000000000e+00  4.7239662364936194e-02 2.9932976414801016e-02 8.0589118507876048e-02  9.7246772991959662e-02 6.0031136416433276e-02 1.3938972401786531e-01  1.4767909613576854e-01 8.7714940718216047e-02 1.8460597587761363e-01  1.9783177847920458e-01 1.1205258042595878e-01 2.2057278269784245e-01  2.4744191504234114e-01 1.3286454422848681e-01 2.4963809543551377e-01  2.9638639588636284e-01 1.5027870622490014e-01 2.7318191271846504e-01  3.4459944316538804e-01 1.6452528821133242e-01 2.9208521357218664e-01  3.9204348772595476e-01 1.7584565770600474e-01 3.0694468487015131e-01  4.3869519189527406e-01 1.8445350803037935e-01 3.1817614810709910e-01  4.8453731064579980e-01 1.9051952878668135e-01 3.2606783840414594e-01  5.2955346646999590e-01 1.9416615759941480e-01 3.3080940638028733e-01  5.7372447207919153e-01 1.9546625943703563e-01 3.3250789468197650e-01  6.1702534756653771e-01 1.9444296019348695e-01 3.3119572657383312e-01  6.5942240144915165e-01 1.9106945348895721e-01 3.2683286896673341e-01  7.0086982024760536e-01 1.8526842137540439e-01 3.1930372653975814e-01  7.4130515769672767e-01 1.7691131181061406e-01 3.0840803191706206e-01  7.8064290774686085e-01 1.6581851742511819e-01 2.9384333506758886e-01  8.1876489702500743e-01 1.5176304215990555e-01 2.7517366892631423e-01  8.5550524671991590e-01 1.3448349977557192e-01 2.5177238647981465e-01  8.9062494453316565e-01 1.1371922307866204e-01 2.2271169520039985e-01  9.2376132140752132e-01 8.9295164018096146e-02 1.8653492243593631e-01  9.5429665355760274e-01 6.1318587601897241e-02 1.4077210923918185e-01  9.8091415109403823e-01 3.0642391262223720e-02 8.1000556140681843e-02  1.0000000000000000e+00 0.0000000000000000e+00 0.0000000000000000e+00  0.0000000000000000e+00 0.0000000000000000e+00 0.0000000000000000e+00  4.6909334764484223e-02 2.0821365769880005e-02 8.1051966848886825e-02  9.6344228368126936e-02 4.2292888018181991e-02 1.4008807017877084e-01  1.4608432372149671e-01 6.2726479052929274e-02 1.8534324640277047e-01  1.9554807799238494e-01 8.1295562705233262e-02 2.2124819446826685e-01  2.4454239682487602e-01 9.7629922925444132e-02 2.5021867290759353e-01  2.9296977654247308e-01 1.1160967075809645e-01 2.7366861910557944e-01  3.4076497249455090e-01 1.2324672752147420e-01 2.9249205244105342e-01  3.8787999581864524e-01 1.3261407864685770e-01 3.0728858710158724e-01  4.3427807039310218e-01 1.3980396216132249e-01 3.1847296307049888e-01  4.7992923768046869e-01 1.4490372856637668e-01 3.2633123774502687e-01  5.2480658861624274e-01 1.4798226986817281e-01 3.3105101335538145e-01  5.6888297684861866e-01 1.4908265503009738e-01 3.3273786691585827e-01  6.1212803210691158e-01 1.4821843944392005e-01 3.3142348745780603e-01  6.5450519663627404e-01 1.4537234236662336e-01 3.2706789617779947e-01  6.9596844119350243e-01 1.4049687004061207e-01 3.1955638302692291e-01  7.3645824643062396e-01 1.3351723297866400e-01 3.0869040660069352e-01  7.7589631259537561e-01 1.2433777669480731e-01 2.9416991683987609e-01  8.1417818618151372e-01 1.1285433081795194e-01 2.7556128526483170e-01  8.5116219595659526e-01 9.8976601694207245e-02 2.5223794321191395e-01  8.8665019685366253e-01 8.2667236828296492e-02 2.2326450953558596e-01  9.2034389567604813e-01 6.4008249225534095e-02 1.8715795530660614e-01  9.5171159645337811e-01 4.3316076471003426e-02 1.4138639536939823e-01  9.7950207822630853e-01 2.1371317813515058e-02 8.1425304916242808e-02  1.0000000000000000e+00 0.0000000000000000e+00 0.0000000000000000e+00  0.0000000000000000e+00 0.0000000000000000e+00 0.0000000000000000e+00  4.6652421971047450e-02 1.4141324765473815e-02 8.1287412573165768e-02  9.5703897815589203e-02 2.8939613601123002e-02 1.4047383855539014e-01  1.4497531621342621e-01 4.3311893247290532e-02 1.8578757420865094e-01  1.9394614524321918e-01 5.6659990141150043e-02 2.2168914855191363e-01  2.4247064427790793e-01 6.8642927172195084e-02 2.5062426819836348e-01  2.9047860523377494e-01 7.9080228952732659e-02 2.7402737743604316e-01  3.3791617490504899e-01 8.7894360467568447e-02 2.9280408879303949e-01  3.8473678183574833e-01 9.5069958965118120e-02 3.0755955960089620e-01  4.3089987168821225e-01 1.0062454234940704e-01 3.1871059902392318e-01  4.7636967640433853e-01 1.0458819853487490e-01 3.2654360521997544e-01  5.2111332064979543e-01 1.0699014006570404e-01 3.3124582754319715e-01  5.6509857127521101e-01 1.0785033254816304e-01 3.3292235983044483e-01  6.0829142313772744e-01 1.0717488146686745e-01 3.3160456261737153e-01  6.5065351522059356e-01 1.0495438749174736e-01 3.2725240750664780e-01  6.9213923011384781e-01 1.0116499661971795e-01 3.1975142539431978e-01  7.3269222107071741e-01 9.5772376977236284e-02 3.0890348795309419e-01  7.7224097004920333e-01 8.8739365883255830e-02 2.9440878841908752e-01  8.1069266425070574e-01 8.0038541794591134e-02 2.7583301499183749e-01  8.4792371181062909e-01 6.9671415026435632e-02 2.5254652166916991e-01  8.8376179253825049e-01 5.7696199066353690e-02 2.2360597825816636e-01  9.1794128827489530e-01 4.4266652165034753e-02 1.8751217907902321e-01  9.4996220044163260e-01 2.9689459092296495e-02 1.4170639562690640e-01  9.7857938629586882e-01 1.4539251258502913e-02 8.1631305308131397e-02  1.0000000000000000e+00 0.0000000000000000e+00 0.0000000000000000e+00  0.0000000000000000e+00 0.0000000000000000e+00 0.0000000000000000e+00  4.6457003042508896e-02 8.8093775880251773e-03 8.1422515329989287e-02  9.5240742580343457e-02 1.8161293826615042e-02 1.4070410267792607e-01  1.4419079537851578e-01 2.7391038377169070e-02 1.8606649451664919e-01  1.9281720842792913e-01 3.6104421145981364e-02 2.2198088381849315e-01  2.4100239613138305e-01 4.4047630499905073e-02 2.5090628591327385e-01  2.8869627429816103e-01 5.1060401880283240e-02 2.7428811444419582e-01  3.3585674381491337e-01 5.7049894325411264e-02 2.9303954396418663e-01  3.8244241528199246e-01 6.1970146523900080e-02 3.0777032577082486e-01  4.2841356047995310e-01 6.5805003356599251e-02 3.1889973878665184e-01  4.7373279450186445e-01 6.8554613290103414e-02 3.2671531496334427e-01  5.1836460595521405e-01 7.0225465019871675e-02 3.3140469417323337e-01  5.6227409017676511e-01 7.0823639454109744e-02 3.3307301203116335e-01  6.0542520424814594e-01 7.0350874371547828e-02 3.3175155759326741e-01  6.4777866883337476e-01 6.8803136478775520e-02 3.2740023134268814e-01  6.8928948125000855e-01 6.6171584945109982e-02 3.1990450297231371e-01  7.2990386631823967e-01 6.2446027942353960e-02 3.0906609023387305e-01  7.6955530818762286e-01 5.7621166549163799e-02 2.9458468947171812e-01  8.0815891210410518e-01 5.1706023191327825e-02 2.7602469543262864e-01  8.4560222304478994e-01 4.4736874902011697e-02 2.5275366821217216e-01  8.8172691643452106e-01 3.6793712317629068e-02 2.2382306653268710e-01  9.1628225354666515e-01 2.8020189705078028e-02 1.8772519490000392e-01  9.4877871140187420e-01 1.8650375773614069e-02 1.4188946216949966e-01  9.7796526973073272e-01 9.0670489355305587e-03 8.1745490115885333e-02  1.0000000000000000e+00 0.0000000000000000e+00 0.0000000000000000e+00  0.0000000000000000e+00 0.0000000000000000e+00 0.0000000000000000e+00  4.6314935734094329e-02 4.2729748246722894e-03 8.1502321615714343e-02  9.4914980567525356e-02 8.9433279920223315e-03 1.4084319930917147e-01  1.4365020089642574e-01 1.3663002868665175e-02 1.8624047160837981e-01  1.9204665053184797e-01 1.8206196786162993e-02 2.2216964211425991e-01  2.4000263651706674e-01 2.2414163433553885e-02 2.5109579109914998e-01  2.8748082429815397e-01 2.6176733999014223e-02 2.7446990298539287e-01  3.3444778877075232e-01 2.9422084942601599e-02 2.9320947322177593e-01  3.8086705558470108e-01 3.2107610195694872e-02 3.0792724229021790e-01  4.2670092188362013e-01 3.4211261395325793e-02 3.1904436161925437e-01  4.7191211811021572e-01 3.5723946726872659e-02 3.2684942004350476e-01  5.1646421052553448e-01 3.6643457685869775e-02 3.3153057911550410e-01  5.6032102989732802e-01 3.6970105964521736e-02 3.3319317873804311e-01  6.0344545455320053e-01 3.6704075058852530e-02 3.3186854126637561e-01  6.4579771410796483e-01 3.5844437312881276e-02 3.2751650762629980e-01  6.8733322346355585e-01 3.4389811711923020e-02 3.2002240791469150e-01  7.2799980499815276e-01 3.2340690083428873e-02 3.0918768509430045e-01  7.6773394366164815e-01 2.9703490297170360e-02 2.9471149411174719e-01  8.0645527484998980e-01 2.6496352481067433e-02 2.7615720640310326e-01  8.4405730478403707e-01 2.2756527305443277e-02 2.5289058581801810e-01  8.8038854411479195e-01 1.8548917031273444e-02 2.2396020413251289e-01  9.1520457862563254e-01 1.3975224778850773e-02 1.8785416164915755e-01  9.4801888181431870e-01 9.1848898731242221e-03 1.4199642071181046e-01  9.7757432869978167e-01 4.3994552212702903e-03 8.1810704887975816e-02  1.0000000000000000e+00 0.0000000000000000e+00 0.0000000000000000e+00  0.0000000000000000e+00 0.0000000000000000e+00 0.0000000000000000e+00  4.6220042087659119e-02 1.9347825765959336e-04 8.1545685992097855e-02  9.4704502887166489e-02 6.3268340517919866e-04 1.4092036513965756e-01  1.4330975918859401e-01 1.2337065514028945e-03 1.8633982467233512e-01  1.9156993296792646e-01 1.9152219228913882e-03 2.2228117753000864e-01  2.3939142343594783e-01 2.6101983390837274e-03 2.5121203225029015e-01  2.8674370881254652e-01 3.2682787339069251e-03 2.7458586330523255e-01  3.3359829341992497e-01 3.8547414611821321e-03 2.9332223921779832e-01  3.7992171495281696e-01 4.3478470039201604e-03 3.0803544420671158e-01  4.2567767442531479e-01 4.7355796608390729e-03 3.1914767497463631e-01  4.7082914749071808e-01 5.0124571806491793e-03 3.2694816302139090e-01  5.1533924346799087e-01 5.1768144426589764e-03 3.3162542032791043e-01  5.5917103155122416e-01 5.2287669320682942e-03 3.3328494212735471e-01  6.0228664311161129e-01 5.1689359929050034e-03 3.3195808268662358e-01  6.4464582223212130e-01 4.9979585399563360e-03 3.2760463380103366e-01  6.8620394829129139e-01 4.7167860161874504e-03 3.2010980780693821e-01  7.2690939898841234e-01 4.3277754964001656e-03 3.0927484347098488e-01  7.6669989563085739e-01 3.8365645477773181e-03 2.9479855687115797e-01  8.0549700557715087e-01 3.2546749846254831e-03 2.7624376907620207e-01  8.4319674703004710e-01 2.6026841776824825e-03 2.5297538480126436e-01  8.7965038843423426e-01 1.9136201711514281e-03 2.2404071027851594e-01  9.1461583695592341e-01 1.2359888822735296e-03 1.8792611436814435e-01  9.4760718338407468e-01 6.3555725914640098e-04 1.4205341762916998e-01  9.7736363677619764e-01 1.9434086786058346e-04 8.1844164186927762e-02  1.0000000000000000e+00 0.0000000000000000e+00 0.0000000000000000e+00  0.0000000000000000e+00 0.0000000000000000e+00 0.0000000000000000e+00  4.6168182342864426e-02 -3.6741499199694954e-03 8.1561033497926788e-02  9.4596993013838310e-02 -7.2556420426092838e-03 1.4094935941916759e-01  1.4314624373682228e-01 -1.0586605933126344e-02 1.8637987225210759e-01  1.9135280685276601e-01 -1.3614972534104174e-02 2.2232966309346877e-01  2.3912554581967782e-01 -1.6319017673361982e-02 2.5126671406657086e-01  2.8643587546081800e-01 -1.8686562261831820e-02 2.7464497288164463e-01  3.3325653465064842e-01 -2.0709201778617695e-02 2.9338444145598247e-01  3.7955459011561271e-01 -2.2380523454849220e-02 3.0809974230508630e-01  4.2529368448548227e-01 -2.3695423798494535e-02 3.1921330553312566e-01  4.7043631786237555e-01 -2.4649771580148638e-02 3.2701450339341781e-01  5.1494487780687237e-01 -2.5240211791626693e-02 3.3169191567447481e-01  5.5878160981667579e-01 -2.5464050862722416e-02 3.3335105163225265e-01  6.0190782847905022e-01 -2.5319204120058694e-02 3.3202324102892328e-01  6.4428254367436433e-01 -2.4804199583348036e-02 3.2766822342059804e-01  6.8586053242176459e-01 -2.3918236870919828e-02 3.2017113840732403e-01  7.2658973172336205e-01 -2.2661300705948993e-02 3.0933313680992114e-01  7.6640759876841991e-01 -2.1034326143278489e-02 2.9485293679604779e-01  8.0523561403697852e-01 -1.9039409082039892e-02 2.7629325864219900e-01  8.4296986823090114e-01 -1.6680063914103531e-02 2.5301891371242818e-01  8.7946181396050027e-01 -1.3961618084565725e-02 2.2407713721985606e-01  9.1446955010347675e-01 -1.0892328663395907e-02 1.8795427739780843e-01  9.4750713978075263e-01 -7.4882784318987018e-03 1.4207227669187725e-01  9.7731306473779855e-01 -3.7968144820073532e-03 8.1853255852949544e-02  1.0000000000000000e+00 0.0000000000000000e+00 0.0000000000000000e+00  0.0000000000000000e+00 0.0000000000000000e+00 0.0000000000000000e+00  4.6157283806546774e-02 -7.5384133002510860e-03 8.1551624524633534e-02  9.4587372034204531e-02 -1.5139331973695342e-02 1.4093586385654097e-01  1.4315098088611788e-01 -2.2402679286765557e-02 1.8636754048589171e-01  1.9138311348407971e-01 -2.9142369609222962e-02 2.2232229053739241e-01  2.3919008489186802e-01 -3.5247445678729429e-02 2.5126667713033429e-01  2.8654068243124242e-01 -4.0642877670900239e-02 2.7465343751628324e-01  3.3340518648095196e-01 -4.5276931978989944e-02 2.9340160111457414e-01  3.7974850383385289e-01 -4.9114908426667520e-02 3.0812505754419850e-01  4.2553246212938561e-01 -5.2134491442033533e-02 3.1924572045158861e-01  4.7071807181666603e-01 -5.4321870995939929e-02 3.2705262058215989e-01  5.1526649109624323e-01 -5.5668623178138310e-02 3.3173412257260149e-01  5.5913890556886436e-01 -5.6169433481816057e-02 3.3339560130026186e-01  6.0229563785915341e-01 -5.5820706574026803e-02 3.3206829741214972e-01  6.4469467175697126e-01 -5.4620075024882836e-02 3.2771188580204297e-01  6.8628962866888510e-01 -5.2566812246012083e-02 3.2021146338523737e-01  7.2702707936243360e-01 -4.9663155955811986e-02 3.0936818001034416e-01  7.6684284987297457e-01 -4.5916534016208606e-02 2.9488084097241229e-01  8.0565651968237517e-01 -4.1342631094696033e-02 2.7631241860946271e-01  8.4336209024015563e-01 -3.5969140465390306e-02 2.5302824855559047e-01  8.7980895670473236e-01 -2.9840026102890424e-02 2.2407649303772104e-01  9.1475361112293274e-01 -2.3020841112579460e-02 1.8794497606641219e-01  9.4770966866496165e-01 -1.5610287586665557e-02 1.4205786206374135e-01  9.7741776783618450e-01 -7.7859262444106014e-03 8.1840609348956136e-02  1.0000000000000000e+00 0.0000000000000000e+00 0.0000000000000000e+00  0.0000000000000000e+00 0.0000000000000000e+00 0.0000000000000000e+00  4.6187310364522179e-02 -1.1608273069392470e-02 8.1517359353787663e-02  9.4677149685146123e-02 -2.3437344796078903e-02 1.4088030061853513e-01  1.4332832250833047e-01 -3.4821257309194213e-02 1.8630429841961163e-01  1.9166866147939887e-01 -4.5427404490282638e-02 2.2226179187737494e-01  2.3959624217507669e-01 -5.5051700227676192e-02 2.5121584885312520e-01  2.8707216249339546e-01 -6.3558435953966055e-02 2.7461613127570655e-01  3.3406028617884698e-01 -7.0858234763425468e-02 2.9337922339440053e-01  3.8052061771083950e-01 -7.6895173236025599e-02 3.0811723444836808e-01  4.2641151479840311e-01 -8.1636662995661025e-02 3.1925088877065488e-01  4.7169167731480954e-01 -8.5065123742113821e-02 3.2706848912519648e-01  5.1632075792899368e-01 -8.7171475762457651e-02 3.3175799185642729e-01  5.6025887923902695e-01 -8.7950503614942638e-02 3.3342455806838978e-01  6.0346541014248833e-01 -8.7398058314860638e-02 3.3209931470958692e-01  6.4589719830076198e-01 -8.5510043060725863e-02 3.2774186535159383e-01  6.8750629635687721e-01 -8.2283165653985899e-02 3.2023726074059000e-01  7.2823706459133808e-01 -7.7717500897773670e-02 3.0938665875079530e-01  7.6802232081139266e-01 -7.1820941305019037e-02 2.9488901225283631e-01  8.0677777396615258e-01 -6.4615571681349376e-02 2.7630773593714275e-01  8.4439280122324367e-01 -5.6145845341329603e-02 2.5300913947985815e-01  8.8071184305094563e-01 -4.6488283499475681e-02 2.2404320921152657e-01  9.1548706110477629e-01 -3.5763203681049731e-02 1.8790082467270980e-01  9.4823021891761750e-01 -2.4155506599667517e-02 1.4201087664163101e-01  9.7768650475814745e-01 -1.1985292271679540e-02 8.1805726235782583e-02  1.0000000000000000e+00 0.0000000000000000e+00 0.0000000000000000e+00  0.0000000000000000e+00 0.0000000000000000e+00 0.0000000000000000e+00  4.6260210237767940e-02 -1.6130905998107743e-02 8.1455063456794444e-02  9.4875019452937734e-02 -3.2639969152038706e-02 1.4077860978300430e-01  1.4369728232867429e-01 -4.8539794282443594e-02 1.8618753308077043e-01  1.9223985192812559e-01 -6.3325526674083282e-02 2.2214830591026896e-01  2.4038457901338153e-01 -7.6695924621129674e-02 2.5111735786703204e-01  2.8807839277697206e-01 -8.8464092351828616e-02 2.7453870058858165e-01  3.3527431444813272e-01 -9.8518984842301802e-02 2.9332470252216830e-01  3.8192